HEADER
"PSFversion" "1.00"
"simulator" "HSPICE"
"version" "X-2025.06 linux64"
"rundate" "18:19:02 11/23/2025"
"runtitle" "*===========================================================                                                            "
"runtype" "Summary Information"
"temperature" "2.5000000e+01"
"op point time" "0.00"
"op point iterations" "0"
"total cpu time" "0.03"
"node value" "fatal"
"operating point" "invalid"
"ac analysis" "invalid"
"dc sweep" "invalid"
"transient analysis" "invalid"
TRAILER
END
